 
TITLE = "012.01"
# Column       1     2     3    
VARIABLES = "ETA" "BEND" "TWIST"
 
#---------------------------------------------------
#   PARTICIPANT, GRID, AND SOLVER INFORMATION
#---------------------------------------------------
DATASETAUXDATA ParticipantID   = "012"
DATASETAUXDATA SubmissionDate  = "05/05/2026"
DATASETAUXDATA Name            = "Bret Stanford"
DATASETAUXDATA Email           = "bret.k.stanford@nasa.gov"
DATASETAUXDATA Institution     = "NASA Langley Research Center - Aeroelasticity Branch"
DATASETAUXDATA SolverName      = "FUN3D SFE"
DATASETAUXDATA BasicAlgorithm  = "RANS"
DATASETAUXDATA TurbulenceModel = "SA-neg"
DATASETAUXDATA GridId          = "unstructured"
DATASETAUXDATA FEMSolverName   = "NASTRAN"
DATASETAUXDATA FEMAnalysisType = "Modal"
DATASETAUXDATA Notes           = "FUN3D coupled to a modal structure"
             
ZONE T="012.01 - CL 0.50 - GRID L1 - Wing Deformation"
AUXDATA GridLevel       = "1"
AUXDATA Mach            = "0.85"
AUXDATA Re              = "5000000.0"
AUXDATA Alpha           = "2.54480000"
AUXDATA Tstatic         = "322.04K"
AUXDATA CLtotal         = "0.49997867"
AUXDATA GridFileName    = "boo.x"
            0.13060000 -0.00000257 0.00754602
            0.20090000 0.00015241 -0.00206712
            0.28280000 0.00044351 -0.05424648
            0.39710000 0.00138095 -0.22019211
            0.42860000 0.00180501 -0.27665311
            0.50240000 0.00307749 -0.43023224
            0.55460000 0.00420676 -0.53998965
            0.60280000 0.00542316 -0.64192458
            0.67730000 0.00766274 -0.81284746
            0.72680000 0.00935383 -0.90982313
            0.79540000 0.01195823 -1.02993389
            0.84560000 0.01403321 -1.11127544
            0.91500000 0.01703055 -1.16758370
            0.95000000 0.01858975 -1.17465253
 
ZONE T="012.01 - CL 0.50 - GRID L2 - Wing Deformation"
AUXDATA GridLevel       = "2"
AUXDATA Mach            = "0.85"
AUXDATA Re              = "5000000.0"
AUXDATA Alpha           = "2.50850000"
AUXDATA Tstatic         = "322.04K"
AUXDATA CLtotal         = "0.50000321"
AUXDATA GridFileName    = "boo.x"
            0.13060000 -0.00021250 -0.05746598
            0.20090000 0.00015639 -0.00355652
            0.28280000 0.00044863 -0.05666820
            0.39710000 0.00139163 -0.22422903
            0.42860000 0.00181665 -0.28151101
            0.50240000 0.00308698 -0.43419863
            0.55460000 0.00421859 -0.54477689
            0.60280000 0.00544070 -0.64512322
            0.67730000 0.00768952 -0.81749106
            0.72680000 0.00938510 -0.91553278
            0.79540000 0.01199622 -1.03661866
            0.84560000 0.01408003 -1.11660655
            0.91500000 0.01708748 -1.17246215
            0.95000000 0.01864504 -1.18439894
 
ZONE T="012.01 - CL 0.50 - GRID L3 - Wing Deformation"
AUXDATA GridLevel       = "3"
AUXDATA Mach            = "0.85"
AUXDATA Re              = "5000000.0"
AUXDATA Alpha           = "2.49560000"
AUXDATA Tstatic         = "322.04K"
AUXDATA CLtotal         = "0.49999954"
AUXDATA GridFileName    = "boo.x"
            0.13060000 -0.00016373 -0.04235887
            0.20090000 0.00004704 -0.03935936
            0.28280000 0.00044866 -0.05617256
            0.39710000 0.00139109 -0.22418647
            0.42860000 0.00181727 -0.28151936
            0.50240000 0.00309772 -0.43681889
            0.55460000 0.00422988 -0.54767786
            0.60280000 0.00545378 -0.64863681
            0.67730000 0.00769973 -0.82017566
            0.72680000 0.00939942 -0.91761083
            0.79540000 0.01205440 -1.00553409
            0.84560000 0.01413753 -1.08601349
            0.91500000 0.01713960 -1.14432770
            0.95000000 0.01869016 -1.16154168
 
ZONE T="012.01 - CL 0.50 - GRID L4 - Wing Deformation"
AUXDATA GridLevel       = "4"
AUXDATA Mach            = "0.85"
AUXDATA Re              = "5000000.0"
AUXDATA Alpha           = "2.48780000"
AUXDATA Tstatic         = "322.04K"
AUXDATA CLtotal         = "0.50000554"
AUXDATA GridFileName    = "boo.x"
            0.13060000 -0.00013347 -0.03301134
            0.20090000 0.00006723 -0.03232731
            0.28280000 0.00044578 -0.05499297
            0.39710000 0.00139236 -0.22386610
            0.42860000 0.00181905 -0.28133501
            0.50240000 0.00309898 -0.43691858
            0.55460000 0.00423335 -0.54747490
            0.60280000 0.00546022 -0.64876817
            0.67730000 0.00775053 -0.79883326
            0.72680000 0.00944652 -0.89833487
            0.79540000 0.01206564 -1.01978022
            0.84560000 0.01414771 -1.09622684
            0.91500000 0.01715056 -1.15284307
            0.95000000 0.01870705 -1.17000441
 
