 
TITLE = "012.01"
# Column       1     2     3    
VARIABLES = "ETA" "BEND" "TWIST"
 
#---------------------------------------------------
#   PARTICIPANT, GRID, AND SOLVER INFORMATION
#---------------------------------------------------
DATASETAUXDATA ParticipantID   = "012"
DATASETAUXDATA SubmissionDate  = "05/05/2026"
DATASETAUXDATA Name            = "Bret Stanford"
DATASETAUXDATA Email           = "bret.k.stanford@nasa.gov"
DATASETAUXDATA Institution     = "NASA Langley Research Center - Aeroelasticity Branch"
DATASETAUXDATA SolverName      = "FUN3D SFE"
DATASETAUXDATA BasicAlgorithm  = "RANS"
DATASETAUXDATA TurbulenceModel = "SA-neg"
DATASETAUXDATA GridId          = "unstructured"
DATASETAUXDATA FEMSolverName   = "NASTRAN"
DATASETAUXDATA FEMAnalysisType = "Modal"
DATASETAUXDATA Notes           = "FUN3D coupled to a modal structure"
             
ZONE T="012.01 - ALPHA -1.50 - GRID L3 - Wing Deformation"
AUXDATA GridLevel       = "3"
AUXDATA Mach            = "0.85"
AUXDATA Re              = "5000000.0"
AUXDATA Alpha           = "-1.50000000"
AUXDATA Tstatic         = "322.04K"
AUXDATA CLtotal         = "-0.00962797"
AUXDATA GridFileName    = "boo.x"
            0.13060000 -0.00015975 -0.05122231
            0.20090000 -0.00011560 -0.03916109
            0.28280000 -0.00001914 -0.00646191
            0.39710000 -0.00008036 -0.01439490
            0.42860000 -0.00010928 -0.01783009
            0.50240000 -0.00020327 -0.02627242
            0.55460000 -0.00029164 -0.03415503
            0.60280000 -0.00039371 -0.04258530
            0.67730000 -0.00059994 -0.05092246
            0.72680000 -0.00076241 -0.06089255
            0.79540000 -0.00102475 -0.07544645
            0.84560000 -0.00120531 -0.05410236
            0.91500000 -0.00152755 -0.07210913
            0.95000000 -0.00169666 -0.08304293
 
ZONE T="012.01 - ALPHA 0.00 - GRID L3 - Wing Deformation"
AUXDATA GridLevel       = "3"
AUXDATA Mach            = "0.85"
AUXDATA Re              = "5000000.0"
AUXDATA Alpha           = "0.00000000"
AUXDATA Tstatic         = "322.04K"
AUXDATA CLtotal         = "0.17987298"
AUXDATA GridFileName    = "boo.x"
            0.13060000 -0.00016127 -0.04787953
            0.20090000 -0.00005182 -0.04009742
            0.28280000 0.00015956 -0.02619306
            0.39710000 0.00047831 -0.09426480
            0.42860000 0.00062865 -0.12094539
            0.50240000 0.00106145 -0.18641888
            0.55460000 0.00144085 -0.23419173
            0.60280000 0.00184692 -0.27836494
            0.67730000 0.00257974 -0.34935586
            0.72680000 0.00312978 -0.39271193
            0.79540000 0.00400704 -0.41640092
            0.84560000 0.00466808 -0.45266093
            0.91500000 0.00561558 -0.48553825
            0.95000000 0.00610290 -0.49864942
 
ZONE T="012.01 - ALPHA 1.50 - GRID L3 - Wing Deformation"
AUXDATA GridLevel       = "3"
AUXDATA Mach            = "0.85"
AUXDATA Re              = "5000000.0"
AUXDATA Alpha           = "1.50000000"
AUXDATA Tstatic         = "322.04K"
AUXDATA CLtotal         = "0.36582868"
AUXDATA GridFileName    = "boo.x"
            0.13060000 -0.00016280 -0.04462335
            0.20090000 0.00000637 -0.03977121
            0.28280000 0.00033014 -0.04426517
            0.39710000 0.00102013 -0.17321717
            0.42860000 0.00133218 -0.21747527
            0.50240000 0.00226806 -0.33715674
            0.55460000 0.00309471 -0.42308203
            0.60280000 0.00398700 -0.50164276
            0.67730000 0.00561962 -0.63331234
            0.72680000 0.00685324 -0.70928156
            0.79540000 0.00874902 -0.80277473
            0.84560000 0.01029350 -0.83462251
            0.91500000 0.01246155 -0.88295857
            0.95000000 0.01358040 -0.89864746
 
ZONE T="012.01 - ALPHA 2.50 - GRID L3 - Wing Deformation"
AUXDATA GridLevel       = "3"
AUXDATA Mach            = "0.85"
AUXDATA Re              = "5000000.0"
AUXDATA Alpha           = "2.50000000"
AUXDATA Tstatic         = "322.04K"
AUXDATA CLtotal         = "0.50060958"
AUXDATA GridFileName    = "boo.x"
            0.13060000 -0.00016373 -0.04234864
            0.20090000 0.00004722 -0.03935660
            0.28280000 0.00044918 -0.05622724
            0.39710000 0.00139276 -0.22442056
            0.42860000 0.00181944 -0.28180702
            0.50240000 0.00310144 -0.43727059
            0.55460000 0.00423495 -0.54823822
            0.60280000 0.00546033 -0.64928263
            0.67730000 0.00770898 -0.82099889
            0.72680000 0.00941074 -0.91852081
            0.79540000 0.01206888 -1.00653641
            0.84560000 0.01415455 -1.08708954
            0.91500000 0.01716027 -1.14544789
            0.95000000 0.01871272 -1.16265915
 
ZONE T="012.01 - ALPHA 3.00 - GRID L3 - Wing Deformation"
AUXDATA GridLevel       = "3"
AUXDATA Mach            = "0.85"
AUXDATA Re              = "5000000.0"
AUXDATA Alpha           = "3.00000000"
AUXDATA Tstatic         = "322.04K"
AUXDATA CLtotal         = "0.56832040"
AUXDATA GridFileName    = "boo.x"
            0.13060000 -0.00016411 -0.04126094
            0.20090000 0.00006477 -0.03837068
            0.28280000 0.00050849 -0.06255896
            0.39710000 0.00157705 -0.25065929
            0.42860000 0.00206017 -0.31465581
            0.50240000 0.00351219 -0.48786888
            0.55460000 0.00479609 -0.61100122
            0.60280000 0.00618437 -0.72269357
            0.67730000 0.00873358 -0.91298046
            0.72680000 0.01066342 -1.02014495
            0.79540000 0.01367397 -1.11910796
            0.84560000 0.01604168 -1.20724136
            0.91500000 0.01945487 -1.26899082
            0.95000000 0.02121802 -1.28635035
 
ZONE T="012.01 - ALPHA 3.50 - GRID L3 - Wing Deformation"
AUXDATA GridLevel       = "3"
AUXDATA Mach            = "0.85"
AUXDATA Re              = "5000000.0"
AUXDATA Alpha           = "3.50000000"
AUXDATA Tstatic         = "322.04K"
AUXDATA CLtotal         = "0.62306124"
AUXDATA GridFileName    = "boo.x"
            0.13060000 -0.00016428 -0.04051480
            0.20090000 0.00008227 -0.03935941
            0.28280000 0.00055021 -0.06696097
            0.39710000 0.00170322 -0.26816538
            0.42860000 0.00222394 -0.33636860
            0.50240000 0.00378850 -0.52086827
            0.55460000 0.00517163 -0.65171516
            0.60280000 0.00666771 -0.77029764
            0.67730000 0.00941787 -0.97324529
            0.72680000 0.01150259 -1.08738936
            0.79540000 0.01471792 -1.22556418
            0.84560000 0.01732135 -1.28828906
            0.91500000 0.02102184 -1.35209616
            0.95000000 0.02293387 -1.36915570
 
ZONE T="012.01 - ALPHA 4.00 - GRID L3 - Wing Deformation"
AUXDATA GridLevel       = "3"
AUXDATA Mach            = "0.85"
AUXDATA Re              = "5000000.0"
AUXDATA Alpha           = "4.00000000"
AUXDATA Tstatic         = "322.04K"
AUXDATA CLtotal         = "0.66231875"
AUXDATA GridFileName    = "boo.x"
            0.13060000 -0.00016405 -0.04020548
            0.20090000 0.00008986 -0.03944412
            0.28280000 0.00057038 -0.06886288
            0.39710000 0.00175762 -0.27437267
            0.42860000 0.00229241 -0.34367338
            0.50240000 0.00389717 -0.53084264
            0.55460000 0.00531447 -0.66330504
            0.60280000 0.00684752 -0.78346008
            0.67730000 0.00967119 -0.99222031
            0.72680000 0.01181055 -1.10727088
            0.79540000 0.01512154 -1.24935035
            0.84560000 0.01780680 -1.31475467
            0.91500000 0.02163064 -1.37927528
            0.95000000 0.02360744 -1.39583723
 
ZONE T="012.01 - ALPHA 4.50 - GRID L3 - Wing Deformation"
AUXDATA GridLevel       = "3"
AUXDATA Mach            = "0.85"
AUXDATA Re              = "5000000.0"
AUXDATA Alpha           = "4.50000000"
AUXDATA Tstatic         = "322.04K"
AUXDATA CLtotal         = "0.69631955"
AUXDATA GridFileName    = "boo.x"
            0.13060000 -0.00016367 -0.04003700
            0.20090000 0.00009540 -0.03959111
            0.28280000 0.00058430 -0.07017759
            0.39710000 0.00179132 -0.27781876
            0.42860000 0.00233352 -0.34747344
            0.50240000 0.00395803 -0.53525862
            0.55460000 0.00539105 -0.66790054
            0.60280000 0.00694073 -0.78829326
            0.67730000 0.00979404 -0.99668115
            0.72680000 0.01196387 -1.11496737
            0.79540000 0.01536231 -1.22841600
            0.84560000 0.01805348 -1.32654331
            0.91500000 0.02194678 -1.39168101
            0.95000000 0.02396073 -1.40789917
 
